v 0 eval {set sim_annotation {Sliding Window with window size 4 (normal operation)}}
v 0.050000000000000003 eval {set sim_annotation {FTP starts at 0.1}}
+ 0.1 0 1 tcp 40 ------- 0 0.0 1.0 0 0
- 0.1 0 1 tcp 40 ------- 0 0.0 1.0 0 0
v 0.11 eval {set sim_annotation {Send Packet_0,1,2,3}}
r 0.3016 0 1 tcp 40 ------- 0 0.0 1.0 0 0
+ 0.3016 1 0 ack 40 ------- 0 1.0 0.0 0 1
- 0.3016 1 0 ack 40 ------- 0 1.0 0.0 0 1
v 0.34000000000000002 eval {set sim_annotation {Receive Ack_0,1,2,3}}
r 0.5032 1 0 ack 40 ------- 0 1.0 0.0 0 1
+ 0.5032 0 1 tcp 1040 ------- 0 0.0 1.0 1 2
- 0.5032 0 1 tcp 1040 ------- 0 0.0 1.0 1 2
+ 0.5032 0 1 tcp 1040 ------- 0 0.0 1.0 2 3
+ 0.5032 0 1 tcp 1040 ------- 0 0.0 1.0 3 4
+ 0.5032 0 1 tcp 1040 ------- 0 0.0 1.0 4 5
- 0.5448 0 1 tcp 1040 ------- 0 0.0 1.0 2 3
v 0.56000000000000005 eval {set sim_annotation {Send Packet_4,5,6,7}}
- 0.5864 0 1 tcp 1040 ------- 0 0.0 1.0 3 4
- 0.628 0 1 tcp 1040 ------- 0 0.0 1.0 4 5
r 0.7448 0 1 tcp 1040 ------- 0 0.0 1.0 1 2
+ 0.7448 1 0 ack 40 ------- 0 1.0 0.0 1 6
- 0.7448 1 0 ack 40 ------- 0 1.0 0.0 1 6
r 0.7864 0 1 tcp 1040 ------- 0 0.0 1.0 2 3
+ 0.7864 1 0 ack 40 ------- 0 1.0 0.0 2 7
- 0.7864 1 0 ack 40 ------- 0 1.0 0.0 2 7
v 0.79000000000000004 eval {set sim_annotation {Receive Ack_4,5,6,7}}
r 0.828 0 1 tcp 1040 ------- 0 0.0 1.0 3 4
+ 0.828 1 0 ack 40 ------- 0 1.0 0.0 3 8
- 0.828 1 0 ack 40 ------- 0 1.0 0.0 3 8
r 0.8696 0 1 tcp 1040 ------- 0 0.0 1.0 4 5
+ 0.8696 1 0 ack 40 ------- 0 1.0 0.0 4 9
- 0.8696 1 0 ack 40 ------- 0 1.0 0.0 4 9
r 0.9464 1 0 ack 40 ------- 0 1.0 0.0 1 6
+ 0.9464 0 1 tcp 1040 ------- 0 0.0 1.0 5 10
- 0.9464 0 1 tcp 1040 ------- 0 0.0 1.0 5 10
r 0.988 1 0 ack 40 ------- 0 1.0 0.0 2 7
+ 0.988 0 1 tcp 1040 ------- 0 0.0 1.0 6 11
- 0.988 0 1 tcp 1040 ------- 0 0.0 1.0 6 11
v 0.98999999999999999 eval {set sim_annotation {Send Packet_8,9,10,11}}
r 1.0296 1 0 ack 40 ------- 0 1.0 0.0 3 8
+ 1.0296 0 1 tcp 1040 ------- 0 0.0 1.0 7 12
- 1.0296 0 1 tcp 1040 ------- 0 0.0 1.0 7 12
r 1.0712 1 0 ack 40 ------- 0 1.0 0.0 4 9
+ 1.0712 0 1 tcp 1040 ------- 0 0.0 1.0 8 13
- 1.0712 0 1 tcp 1040 ------- 0 0.0 1.0 8 13
r 1.188 0 1 tcp 1040 ------- 0 0.0 1.0 5 10
+ 1.188 1 0 ack 40 ------- 0 1.0 0.0 5 14
- 1.188 1 0 ack 40 ------- 0 1.0 0.0 5 14
r 1.2296 0 1 tcp 1040 ------- 0 0.0 1.0 6 11
+ 1.2296 1 0 ack 40 ------- 0 1.0 0.0 6 15
- 1.2296 1 0 ack 40 ------- 0 1.0 0.0 6 15
v 1.23 eval {set sim_annotation {Receive Ack_8,9,10,11 }}
r 1.2712 0 1 tcp 1040 ------- 0 0.0 1.0 7 12
+ 1.2712 1 0 ack 40 ------- 0 1.0 0.0 7 16
- 1.2712 1 0 ack 40 ------- 0 1.0 0.0 7 16
r 1.3128 0 1 tcp 1040 ------- 0 0.0 1.0 8 13
+ 1.3128 1 0 ack 40 ------- 0 1.0 0.0 8 17
- 1.3128 1 0 ack 40 ------- 0 1.0 0.0 8 17
r 1.3896 1 0 ack 40 ------- 0 1.0 0.0 5 14
+ 1.3896 0 1 tcp 1040 ------- 0 0.0 1.0 9 18
- 1.3896 0 1 tcp 1040 ------- 0 0.0 1.0 9 18
v 1.4299999999999999 eval {set sim_annotation {Send Packet_12,13,14,15}}
r 1.4312 1 0 ack 40 ------- 0 1.0 0.0 6 15
+ 1.4312 0 1 tcp 1040 ------- 0 0.0 1.0 10 19
- 1.4312 0 1 tcp 1040 ------- 0 0.0 1.0 10 19
r 1.4728 1 0 ack 40 ------- 0 1.0 0.0 7 16
+ 1.4728 0 1 tcp 1040 ------- 0 0.0 1.0 11 20
- 1.4728 0 1 tcp 1040 ------- 0 0.0 1.0 11 20
r 1.5144 1 0 ack 40 ------- 0 1.0 0.0 8 17
+ 1.5144 0 1 tcp 1040 ------- 0 0.0 1.0 12 21
- 1.5144 0 1 tcp 1040 ------- 0 0.0 1.0 12 21
r 1.6312 0 1 tcp 1040 ------- 0 0.0 1.0 9 18
+ 1.6312 1 0 ack 40 ------- 0 1.0 0.0 9 22
- 1.6312 1 0 ack 40 ------- 0 1.0 0.0 9 22
v 1.6699999999999999 eval {set sim_annotation {Receive Ack_12,13,14,15}}
r 1.6728 0 1 tcp 1040 ------- 0 0.0 1.0 10 19
+ 1.6728 1 0 ack 40 ------- 0 1.0 0.0 10 23
- 1.6728 1 0 ack 40 ------- 0 1.0 0.0 10 23
r 1.7144 0 1 tcp 1040 ------- 0 0.0 1.0 11 20
+ 1.7144 1 0 ack 40 ------- 0 1.0 0.0 11 24
- 1.7144 1 0 ack 40 ------- 0 1.0 0.0 11 24
r 1.756 0 1 tcp 1040 ------- 0 0.0 1.0 12 21
+ 1.756 1 0 ack 40 ------- 0 1.0 0.0 12 25
- 1.756 1 0 ack 40 ------- 0 1.0 0.0 12 25
r 1.8328 1 0 ack 40 ------- 0 1.0 0.0 9 22
+ 1.8328 0 1 tcp 1040 ------- 0 0.0 1.0 13 26
- 1.8328 0 1 tcp 1040 ------- 0 0.0 1.0 13 26
r 1.8744 1 0 ack 40 ------- 0 1.0 0.0 10 23
+ 1.8744 0 1 tcp 1040 ------- 0 0.0 1.0 14 27
- 1.8744 0 1 tcp 1040 ------- 0 0.0 1.0 14 27
v 1.8799999999999999 eval {set sim_annotation {Send Packet_16,17,18,19}}
r 1.916 1 0 ack 40 ------- 0 1.0 0.0 11 24
+ 1.916 0 1 tcp 1040 ------- 0 0.0 1.0 15 28
- 1.916 0 1 tcp 1040 ------- 0 0.0 1.0 15 28
r 1.9576 1 0 ack 40 ------- 0 1.0 0.0 12 25
+ 1.9576 0 1 tcp 1040 ------- 0 0.0 1.0 16 29
- 1.9576 0 1 tcp 1040 ------- 0 0.0 1.0 16 29
r 2.0744 0 1 tcp 1040 ------- 0 0.0 1.0 13 26
+ 2.0744 1 0 ack 40 ------- 0 1.0 0.0 13 30
- 2.0744 1 0 ack 40 ------- 0 1.0 0.0 13 30
v 2.1099999999999999 eval {set sim_annotation {Receive Ack_16,17,18,19}}
r 2.116 0 1 tcp 1040 ------- 0 0.0 1.0 14 27
+ 2.116 1 0 ack 40 ------- 0 1.0 0.0 14 31
- 2.116 1 0 ack 40 ------- 0 1.0 0.0 14 31
r 2.1576 0 1 tcp 1040 ------- 0 0.0 1.0 15 28
+ 2.1576 1 0 ack 40 ------- 0 1.0 0.0 15 32
- 2.1576 1 0 ack 40 ------- 0 1.0 0.0 15 32
r 2.1992 0 1 tcp 1040 ------- 0 0.0 1.0 16 29
+ 2.1992 1 0 ack 40 ------- 0 1.0 0.0 16 33
- 2.1992 1 0 ack 40 ------- 0 1.0 0.0 16 33
r 2.276 1 0 ack 40 ------- 0 1.0 0.0 13 30
+ 2.276 0 1 tcp 1040 ------- 0 0.0 1.0 17 34
- 2.276 0 1 tcp 1040 ------- 0 0.0 1.0 17 34
r 2.3176 1 0 ack 40 ------- 0 1.0 0.0 14 31
+ 2.3176 0 1 tcp 1040 ------- 0 0.0 1.0 18 35
- 2.3176 0 1 tcp 1040 ------- 0 0.0 1.0 18 35
v 2.3199999999999998 eval {set sim_annotation {Send Packet_20,21,22,23}}
r 2.3592 1 0 ack 40 ------- 0 1.0 0.0 15 32
+ 2.3592 0 1 tcp 1040 ------- 0 0.0 1.0 19 36
- 2.3592 0 1 tcp 1040 ------- 0 0.0 1.0 19 36
r 2.4008 1 0 ack 40 ------- 0 1.0 0.0 16 33
+ 2.4008 0 1 tcp 1040 ------- 0 0.0 1.0 20 37
- 2.4008 0 1 tcp 1040 ------- 0 0.0 1.0 20 37
r 2.5176 0 1 tcp 1040 ------- 0 0.0 1.0 17 34
+ 2.5176 1 0 ack 40 ------- 0 1.0 0.0 17 38
- 2.5176 1 0 ack 40 ------- 0 1.0 0.0 17 38
r 2.5592 0 1 tcp 1040 ------- 0 0.0 1.0 18 35
+ 2.5592 1 0 ack 40 ------- 0 1.0 0.0 18 39
- 2.5592 1 0 ack 40 ------- 0 1.0 0.0 18 39
v 2.5600000000000001 eval {set sim_annotation {Receive Ack_24,25,26,27}}
r 2.6008 0 1 tcp 1040 ------- 0 0.0 1.0 19 36
+ 2.6008 1 0 ack 40 ------- 0 1.0 0.0 19 40
- 2.6008 1 0 ack 40 ------- 0 1.0 0.0 19 40
r 2.6424 0 1 tcp 1040 ------- 0 0.0 1.0 20 37
+ 2.6424 1 0 ack 40 ------- 0 1.0 0.0 20 41
- 2.6424 1 0 ack 40 ------- 0 1.0 0.0 20 41
r 2.7192 1 0 ack 40 ------- 0 1.0 0.0 17 38
+ 2.7192 0 1 tcp 1040 ------- 0 0.0 1.0 21 42
- 2.7192 0 1 tcp 1040 ------- 0 0.0 1.0 21 42
v 2.7599999999999998 eval {set sim_annotation {Send Packet_28,29,30,31}}
r 2.7608 1 0 ack 40 ------- 0 1.0 0.0 18 39
+ 2.7608 0 1 tcp 1040 ------- 0 0.0 1.0 22 43
- 2.7608 0 1 tcp 1040 ------- 0 0.0 1.0 22 43
r 2.8024 1 0 ack 40 ------- 0 1.0 0.0 19 40
+ 2.8024 0 1 tcp 1040 ------- 0 0.0 1.0 23 44
- 2.8024 0 1 tcp 1040 ------- 0 0.0 1.0 23 44
r 2.844 1 0 ack 40 ------- 0 1.0 0.0 20 41
+ 2.844 0 1 tcp 1040 ------- 0 0.0 1.0 24 45
- 2.844 0 1 tcp 1040 ------- 0 0.0 1.0 24 45
r 2.9608 0 1 tcp 1040 ------- 0 0.0 1.0 21 42
+ 2.9608 1 0 ack 40 ------- 0 1.0 0.0 21 46
- 2.9608 1 0 ack 40 ------- 0 1.0 0.0 21 46
v 3 eval {set sim_annotation {Receive Ack_28}}
r 3.0024 0 1 tcp 1040 ------- 0 0.0 1.0 22 43
r 3.044 0 1 tcp 1040 ------- 0 0.0 1.0 23 44
r 3.0856 0 1 tcp 1040 ------- 0 0.0 1.0 24 45
v 3.1000000000000001 eval {set sim_annotation {FTP stops}}
r 3.1624 1 0 ack 40 ------- 0 1.0 0.0 21 46
